      -----------------------------------------------------------
     |                   =====================                   |
     |                           x T B                           |
     |                   =====================                   |
     |                         S. Grimme                         |
     |          Mulliken Center for Theoretical Chemistry        |
     |                    University of Bonn                     |
      -----------------------------------------------------------

   * xtb version 6.4.1 (afa7bdf) compiled by 'ehlert@majestix' on 2021-06-10

   xtb is free software: you can redistribute it and/or modify it under
   the terms of the GNU Lesser General Public License as published by
   the Free Software Foundation, either version 3 of the License, or
   (at your option) any later version.

   xtb is distributed in the hope that it will be useful,
   but WITHOUT ANY WARRANTY; without even the implied warranty of
   MERCHANTABILITY or FITNESS FOR A PARTICULAR PURPOSE.  See the
   GNU Lesser General Public License for more details.

   Cite this work as:
   * C. Bannwarth, E. Caldeweyher, S. Ehlert, A. Hansen, P. Pracht,
     J. Seibert, S. Spicher, S. Grimme, WIREs Comput. Mol. Sci., 2020, 11,
     e01493. DOI: 10.1002/wcms.1493

   for GFN2-xTB:
   * C. Bannwarth, S. Ehlert and S. Grimme., J. Chem. Theory Comput., 2019,
     15, 1652-1671. DOI: 10.1021/acs.jctc.8b01176
   for GFN1-xTB:
   * S. Grimme, C. Bannwarth, P. Shushkov, J. Chem. Theory Comput., 2017,
     13, 1989-2009. DOI: 10.1021/acs.jctc.7b00118
   for GFN0-xTB:
   * P. Pracht, E. Caldeweyher, S. Ehlert, S. Grimme, ChemRxiv, 2019, preprint.
     DOI: 10.26434/chemrxiv.8326202.v1
   for GFN-FF:
   * S. Spicher and S. Grimme, Angew. Chem. Int. Ed., 2020, 59, 15665-15673.
     DOI: 10.1002/anie.202004239

   for DFT-D4:
   * E. Caldeweyher, C. Bannwarth and S. Grimme, J. Chem. Phys., 2017,
     147, 034112. DOI: 10.1063/1.4993215
   * E. Caldeweyher, S. Ehlert, A. Hansen, H. Neugebauer, S. Spicher,
     C. Bannwarth and S. Grimme, J. Chem. Phys., 2019, 150, 154122.
     DOI: 10.1063/1.5090222
   * E. Caldeweyher, J.-M. Mewes, S. Ehlert and S. Grimme, Phys. Chem. Chem. Phys.
     2020, 22, 8499-8512. DOI: 10.1039/D0CP00502A

   for sTDA-xTB:
   * S. Grimme and C. Bannwarth, J. Chem. Phys., 2016, 145, 054103.
     DOI: 10.1063/1.4959605

   in the mass-spec context:
   * V. Asgeirsson, C. Bauer and S. Grimme, Chem. Sci., 2017, 8, 4879.
     DOI: 10.1039/c7sc00601b
   * J. Koopman and S. Grimme, ACS Omega 2019, 4, 12, 15120-15133.
     DOI: 10.1021/acsomega.9b02011

   for metadynamics refer to:
   * S. Grimme, J. Chem. Theory Comput., 2019, 155, 2847-2862
     DOI: 10.1021/acs.jctc.9b00143

   for SPH calculations refer to:
   * S. Spicher and S. Grimme, J. Chem. Theory Comput., 2021, 17, 1701-1714
     DOI: 10.1021/acs.jctc.0c01306

   with help from (in alphabetical order)
   P. Atkinson, C. Bannwarth, F. Bohle, G. Brandenburg, E. Caldeweyher
   M. Checinski, S. Dohm, S. Ehlert, S. Ehrlich, I. Gerasimov, J. Koopman
   C. Lavigne, S. Lehtola, F. März, M. Müller, F. Musil, H. Neugebauer
   J. Pisarek, C. Plett, P. Pracht, J. Seibert, P. Shushkov, S. Spicher
   M. Stahn, M. Steiner, T. Strunk, J. Stückrath, T. Rose, and J. Unsleber

 * started run on 2022/09/14 at 11:43:47.099

           -------------------------------------------------
          |                Calculation Setup                |
           -------------------------------------------------

          program call               : xtb mol.xyz --ohess --verbose
          coordinate file            : mol.xyz
          xtbhome directory          : /home/hkneiding
          path for xtb               : /home/hkneiding
          xcontrol input file        : mol.xyz
          omp threads                :                    12
          number of atoms            :                    25
          number of electrons        :                    68
          charge                     :                     0
          spin                       :                   0.0
          first test random number   :      0.68888331509897
          a pointer address          :            0x3F305AA8
          random memory content      :      3FE60B5505A38669

$$$$$$$$$$$$$$$$$$$$$$$$$$$$$$$$$$$$$$$$$$$$$$$$$$$$$$$$$$$$$$$$$$$$$$$$
 CONSTRAINTS & SCANS: DEBUG SECTION
$$$$$$$$$$$$$$$$$$$$$$$$$$$$$$$$$$$$$$$$$$$$$$$$$$$$$$$$$$$$$$$$$$$$$$$$
   ID    Z sym.   atoms
    1    6 C      1-6, 8, 9, 11, 12
    2    8 O      7
    3    7 N      10, 13
    4    1 H      14-25
$$$$$$$$$$$$$$$$$$$$$$$$$$$$$$$$$$$$$$$$$$$$$$$$$$$$$$$$$$$$$$$$$$$$$$$$

           -------------------------------------------------
          |                 G F N 2 - x T B                 |
           -------------------------------------------------

        Reference                      10.1021/acs.jctc.8b01176
      * Hamiltonian:
        H0-scaling (s, p, d)           1.850000    2.230000    2.230000
        zeta-weighting                 0.500000
      * Dispersion:
        s8                             2.700000
        a1                             0.520000
        a2                             5.000000
        s9                             5.000000
      * Repulsion:
        kExp                           1.500000    1.000000
        rExp                           1.000000
      * Coulomb:
        alpha                          2.000000
        third order                    shell-resolved
        anisotropic                    true
        a3                             3.000000
        a5                             4.000000
        cn-shift                       1.200000
        cn-exp                         4.000000
        max-rad                        5.000000

q/qsh data taken from xtbrestart
CAMM data taken from xtbrestart

          ...................................................
          :                      SETUP                      :
          :.................................................:
          :  # basis functions                  64          :
          :  # atomic orbitals                  64          :
          :  # shells                           38          :
          :  # electrons                        68          :
          :  max. iterations                   250          :
          :  Hamiltonian                  GFN2-xTB          :
          :  restarted?                       true          :
          :  GBSA solvation                  false          :
          :  PC potential                    false          :
          :  electronic temp.          300.0000000     K    :
          :  accuracy                    1.0000000          :
          :  -> integral cutoff          0.2500000E+02      :
          :  -> integral neglect         0.1000000E-07      :
          :  -> SCF convergence          0.1000000E-05 Eh   :
          :  -> wf. convergence          0.1000000E-03 e    :
          :  Broyden damping             0.4000000          :
          ...................................................

 iter      E             dE          RMSdq      gap      omega  full diag
   1    -37.9824735 -0.379825E+02  0.359E-01    3.28       0.0  T
   2    -37.9825285 -0.549838E-04  0.213E-01    3.27       1.0  T
   3    -37.9824042  0.124287E-03  0.890E-02    3.28       1.0  T
   4    -37.9825553 -0.151088E-03  0.151E-02    3.27       1.3  T
   5    -37.9825591 -0.379720E-05  0.642E-03    3.27       3.1  T
   6    -37.9825594 -0.314257E-06  0.248E-03    3.27       8.1  T
   7    -37.9825594 -0.455105E-07  0.895E-04    3.27      22.3  T
   8    -37.9825594 -0.871238E-08  0.354E-04    3.27      56.4  T

   *** convergence criteria satisfied after 8 iterations ***

         #    Occupation            Energy/Eh            Energy/eV
      -------------------------------------------------------------
         1        2.0000           -0.6989396             -19.0191
       ...           ...                  ...                  ...
        28        2.0000           -0.4338957             -11.8069
        29        2.0000           -0.4295158             -11.6877
        30        2.0000           -0.4144007             -11.2764
        31        2.0000           -0.4072227             -11.0811
        32        2.0000           -0.3690846             -10.0433
        33        2.0000           -0.3640577              -9.9065
        34        2.0000           -0.3533801              -9.6160 (HOMO)
        35                         -0.2331175              -6.3434 (LUMO)
        36                         -0.1854356              -5.0460
        37                         -0.1586667              -4.3175
        38                         -0.0700182              -1.9053
        39                          0.0157276               0.4280
       ...                                ...                  ...
        64                          0.6956063              18.9284
      -------------------------------------------------------------
                  HL-Gap            0.1202626 Eh            3.2725 eV
             Fermi-level           -0.2932488 Eh           -7.9797 eV

 SCC (total)                   0 d,  0 h,  0 min,  0.016 sec
 SCC setup                      ...        0 min,  0.000 sec (  1.509%)
 Dispersion                     ...        0 min,  0.000 sec (  1.571%)
 classical contributions        ...        0 min,  0.000 sec (  0.266%)
 integral evaluation            ...        0 min,  0.001 sec (  9.010%)
 iterations                     ...        0 min,  0.011 sec ( 68.091%)
 molecular gradient             ...        0 min,  0.003 sec ( 15.666%)
 printout                       ...        0 min,  0.001 sec (  3.670%)

         :::::::::::::::::::::::::::::::::::::::::::::::::::::
         ::                     SUMMARY                     ::
         :::::::::::::::::::::::::::::::::::::::::::::::::::::
         :: total energy             -37.437586760102 Eh    ::
         :: gradient norm              0.055416289958 Eh/a0 ::
         :: HOMO-LUMO gap              3.272512130761 eV    ::
         ::.................................................::
         :: HOMO orbital eigv.        -9.615962113827 eV    ::
         :: LUMO orbital eigv.        -6.343449983066 eV    ::
         ::.................................................::
         :: SCC energy               -37.982559420158 Eh    ::
         :: -> isotropic ES            0.036578070415 Eh    ::
         :: -> anisotropic ES          0.008930495746 Eh    ::
         :: -> anisotropic XC          0.018339912030 Eh    ::
         :: -> dispersion             -0.022365163716 Eh    ::
         :: repulsion energy           0.544896435094 Eh    ::
         :: add. restraining           0.000000000000 Eh    ::
         :: total charge              -0.000000000000 e     ::
         ::.................................................::
         :: atomisation energy         7.659853303642 Eh    ::
         :::::::::::::::::::::::::::::::::::::::::::::::::::::

      -----------------------------------------------------------
     |                   =====================                   |
     |                        A N C O P T                        |
     |                   =====================                   |
     |               Approximate Normal Coordinate               |
     |                Rational Function Optimizer                |
      -----------------------------------------------------------

          ...................................................
          :                      SETUP                      :
          :.................................................:
          :   optimization level            normal          :
          :   max. optcycles                   200          :
          :   ANC micro-cycles                  20          :
          :   degrees of freedom                69          :
          :.................................................:
          :   RF solver                   davidson          :
          :   write xtbopt.log                true          :
          :   linear?                        false          :
          :   energy convergence         0.5000000E-05 Eh   :
          :   grad. convergence          0.1000000E-02 Eh/α :
          :   maximium RF displ.         1.0000000          :
          :   Hlow (freq-cutoff)         0.1000000E-01      :
          :   Hmax (freq-cutoff)         5.0000000          :
          :   S6 in model hess.         20.0000000          :
          ...................................................

generating ANC from model Hessian ...
Using Lindh-Hessian (1995)
 Shifting diagonal of input Hessian by   8.713055051639660E-003
 Lowest  eigenvalues of input Hessian
    0.000000    0.000000    0.000000    0.000000    0.000000    0.000000
    0.010000    0.010214    0.011551    0.013908    0.016264    0.019908
    0.021562    0.022985    0.026347    0.028564    0.031925    0.042858
 Highest eigenvalues
    1.791529    1.865248    1.966239    1.993059    2.068641    2.167106


........................................................................
.............................. CYCLE    1 ..............................
........................................................................
   1    -37.9825594 -0.379826E+02  0.141E-04    3.27       0.0  T
   2    -37.9825594 -0.532268E-10  0.869E-05    3.27     230.3  T
   3    -37.9825594  0.618172E-12  0.510E-05    3.27     391.9  T
     SCC iter.                  ...        0 min,  0.005 sec
     gradient                   ...        0 min,  0.002 sec
 * total energy  :   -37.4375868 Eh     change       -0.9852315E-09 Eh
   gradient norm :     0.0554151 Eh/α   predicted     0.0000000E+00 (-100.00%)
   displ. norm   :     0.2089575 α      lambda       -0.5094753E-02
   maximum displ.:     0.0757964 α      in ANC's #10, #8, #17, ...

........................................................................
.............................. CYCLE    2 ..............................
........................................................................
   1    -38.0017433 -0.380017E+02  0.177E-01    3.41       0.0  T
   2    -38.0017606 -0.172768E-04  0.106E-01    3.41       1.0  T
   3    -38.0017322  0.283198E-04  0.434E-02    3.41       1.0  T
   4    -38.0017684 -0.361319E-04  0.621E-03    3.41       3.2  T
   5    -38.0017691 -0.703204E-06  0.277E-03    3.41       7.2  T
   6    -38.0017692 -0.913034E-07  0.115E-03    3.41      17.3  T
   7    -38.0017692 -0.271748E-08  0.565E-04    3.41      35.4  T
   8    -38.0017692 -0.373294E-08  0.139E-04    3.41     143.6  T
     SCC iter.                  ...        0 min,  0.010 sec
     gradient                   ...        0 min,  0.002 sec
 * total energy  :   -37.4408527 Eh     change       -0.3265897E-02 Eh
   gradient norm :     0.0201815 Eh/α   predicted    -0.2659246E-02 ( -18.58%)
   displ. norm   :     0.1231812 α      lambda       -0.8337147E-03
   maximum displ.:     0.0595821 α      in ANC's #8, #10, #6, ...

........................................................................
.............................. CYCLE    3 ..............................
........................................................................
   1    -38.0093559 -0.380094E+02  0.736E-02    3.47       0.0  T
   2    -38.0093608 -0.490591E-05  0.443E-02    3.47       1.0  T
   3    -38.0093561  0.476778E-05  0.213E-02    3.47       1.0  T
   4    -38.0093629 -0.686438E-05  0.365E-03    3.47       5.5  T
   5    -38.0093632 -0.269612E-06  0.120E-03    3.47      16.6  T
   6    -38.0093632 -0.110316E-07  0.605E-04    3.47      33.0  T
   7    -38.0093632 -0.137798E-08  0.268E-04    3.47      74.6  T
     SCC iter.                  ...        0 min,  0.011 sec
     gradient                   ...        0 min,  0.002 sec
 * total energy  :   -37.4413305 Eh     change       -0.4778868E-03 Eh
   gradient norm :     0.0051380 Eh/α   predicted    -0.4232206E-03 ( -11.44%)
   displ. norm   :     0.0584374 α      lambda       -0.9239217E-04
   maximum displ.:     0.0322295 α      in ANC's #1, #8, #6, ...

........................................................................
.............................. CYCLE    4 ..............................
........................................................................
   1    -38.0097299 -0.380097E+02  0.287E-02    3.47       0.0  T
   2    -38.0097302 -0.327535E-06  0.166E-02    3.47       1.2  T
   3    -38.0097300  0.268890E-06  0.459E-03    3.47       4.4  T
   4    -38.0097303 -0.330430E-06  0.118E-03    3.47      17.0  T
   5    -38.0097303 -0.216881E-07  0.404E-04    3.47      49.5  T
   6    -38.0097303 -0.594568E-09  0.188E-04    3.47     106.2  T
     SCC iter.                  ...        0 min,  0.008 sec
     gradient                   ...        0 min,  0.002 sec
 * total energy  :   -37.4413953 Eh     change       -0.6476556E-04 Eh
   gradient norm :     0.0029004 Eh/α   predicted    -0.4635424E-04 ( -28.43%)
   displ. norm   :     0.0598021 α      lambda       -0.4304792E-04
   maximum displ.:     0.0419432 α      in ANC's #1, #6, #8, ...

........................................................................
.............................. CYCLE    5 ..............................
........................................................................
   1    -38.0093505 -0.380094E+02  0.220E-02    3.47       0.0  T
   2    -38.0093508 -0.238378E-06  0.127E-02    3.47       1.6  T
   3    -38.0093506  0.209659E-06  0.370E-03    3.47       5.4  T
   4    -38.0093508 -0.267149E-06  0.826E-04    3.47      24.2  T
   5    -38.0093508 -0.941538E-08  0.300E-04    3.47      66.6  T
     SCC iter.                  ...        0 min,  0.007 sec
     gradient                   ...        0 min,  0.002 sec
 * total energy  :   -37.4414222 Eh     change       -0.2692853E-04 Eh
   gradient norm :     0.0014511 Eh/α   predicted    -0.2160893E-04 ( -19.75%)
   displ. norm   :     0.0569963 α      lambda       -0.1100454E-04
   maximum displ.:     0.0450794 α      in ANC's #1, #3, #6, ...

........................................................................
.............................. CYCLE    6 ..............................
........................................................................
   1    -38.0091503 -0.380092E+02  0.137E-02    3.47       0.0  T
   2    -38.0091504 -0.124148E-06  0.805E-03    3.47       2.5  T
   3    -38.0091503  0.165743E-06  0.328E-03    3.47       6.1  T
   4    -38.0091505 -0.220049E-06  0.503E-04    3.47      39.8  T
   5    -38.0091505 -0.217393E-08  0.233E-04    3.47      85.7  T
     SCC iter.                  ...        0 min,  0.007 sec
     gradient                   ...        0 min,  0.002 sec
 * total energy  :   -37.4414339 Eh     change       -0.1167927E-04 Eh
   gradient norm :     0.0013262 Eh/α   predicted    -0.5510924E-05 ( -52.81%)
   displ. norm   :     0.0558791 α      lambda       -0.9406526E-05
   maximum displ.:     0.0419171 α      in ANC's #1, #3, #10, ...

........................................................................
.............................. CYCLE    7 ..............................
........................................................................
   1    -38.0092208 -0.380092E+02  0.152E-02    3.47       0.0  T
   2    -38.0092208 -0.633473E-07  0.896E-03    3.47       2.2  T
   3    -38.0092208  0.585611E-07  0.205E-03    3.47       9.7  T
   4    -38.0092209 -0.823505E-07  0.495E-04    3.47      40.4  T
   5    -38.0092209 -0.866201E-09  0.229E-04    3.47      87.4  T
     SCC iter.                  ...        0 min,  0.007 sec
     gradient                   ...        0 min,  0.002 sec
 * total energy  :   -37.4414458 Eh     change       -0.1188623E-04 Eh
   gradient norm :     0.0012473 Eh/α   predicted    -0.4730014E-05 ( -60.21%)
   displ. norm   :     0.0838718 α      lambda       -0.1158114E-04
   maximum displ.:     0.0609733 α      in ANC's #1, #3, #4, ...

........................................................................
.............................. CYCLE    8 ..............................
........................................................................
   1    -38.0092835 -0.380093E+02  0.222E-02    3.47       0.0  T
   2    -38.0092836 -0.125263E-06  0.130E-02    3.47       1.5  T
   3    -38.0092835  0.120930E-06  0.288E-03    3.47       7.0  T
   4    -38.0092837 -0.166179E-06  0.795E-04    3.47      25.2  T
   5    -38.0092837 -0.426650E-08  0.305E-04    3.47      65.6  T
     SCC iter.                  ...        0 min,  0.007 sec
     gradient                   ...        0 min,  0.002 sec
 * total energy  :   -37.4414603 Eh     change       -0.1449396E-04 Eh
   gradient norm :     0.0010384 Eh/α   predicted    -0.5809859E-05 ( -59.92%)
   displ. norm   :     0.0955287 α      lambda       -0.1089886E-04
   maximum displ.:     0.0702358 α      in ANC's #1, #3, #4, ...

........................................................................
.............................. CYCLE    9 ..............................
........................................................................
   1    -38.0093108 -0.380093E+02  0.239E-02    3.47       0.0  T
   2    -38.0093110 -0.130919E-06  0.141E-02    3.47       1.4  T
   3    -38.0093108  0.142760E-06  0.298E-03    3.47       6.7  T
   4    -38.0093110 -0.195081E-06  0.806E-04    3.47      24.8  T
   5    -38.0093110 -0.330711E-08  0.321E-04    3.47      62.4  T
     SCC iter.                  ...        0 min,  0.007 sec
     gradient                   ...        0 min,  0.002 sec
 * total energy  :   -37.4414745 Eh     change       -0.1417066E-04 Eh
   gradient norm :     0.0010334 Eh/α   predicted    -0.5475925E-05 ( -61.36%)
   displ. norm   :     0.1155629 α      lambda       -0.1239245E-04
   maximum displ.:     0.0847968 α      in ANC's #1, #3, #4, ...

........................................................................
.............................. CYCLE   10 ..............................
........................................................................
   1    -38.0092780 -0.380093E+02  0.271E-02    3.47       0.0  T
   2    -38.0092782 -0.145407E-06  0.159E-02    3.47       1.3  T
   3    -38.0092781  0.952560E-07  0.265E-03    3.47       7.5  T
   4    -38.0092782 -0.150383E-06  0.866E-04    3.47      23.1  T
   5    -38.0092782 -0.355186E-08  0.331E-04    3.47      60.4  T
     SCC iter.                  ...        0 min,  0.007 sec
     gradient                   ...        0 min,  0.002 sec
 * total energy  :   -37.4414909 Eh     change       -0.1643467E-04 Eh
   gradient norm :     0.0010975 Eh/α   predicted    -0.6233982E-05 ( -62.07%)
   displ. norm   :     0.1614766 α      lambda       -0.1647975E-04
   maximum displ.:     0.1184223 α      in ANC's #1, #3, #4, ...

........................................................................
.............................. CYCLE   11 ..............................
........................................................................
   1    -38.0091736 -0.380092E+02  0.363E-02    3.47       0.0  T
   2    -38.0091738 -0.237238E-06  0.214E-02    3.47       1.0  T
   3    -38.0091738  0.164220E-07  0.241E-03    3.47       8.3  T
   4    -38.0091739 -0.890710E-07  0.112E-03    3.47      17.8  T
   5    -38.0091739 -0.103832E-07  0.426E-04    3.47      46.9  T
   6    -38.0091739 -0.163097E-08  0.116E-04    3.47     172.4  T
     SCC iter.                  ...        0 min,  0.008 sec
     gradient                   ...        0 min,  0.002 sec
 * total energy  :   -37.4415119 Eh     change       -0.2099449E-04 Eh
   gradient norm :     0.0011263 Eh/α   predicted    -0.8340414E-05 ( -60.27%)
   displ. norm   :     0.1824463 α      lambda       -0.1671237E-04
   maximum displ.:     0.1358873 α      in ANC's #1, #3, #2, ...

........................................................................
.............................. CYCLE   12 ..............................
........................................................................
   1    -38.0091312 -0.380091E+02  0.386E-02    3.47       0.0  T
   2    -38.0091315 -0.255182E-06  0.228E-02    3.47       1.0  T
   3    -38.0091315 -0.460657E-07  0.192E-03    3.47      10.4  T
   4    -38.0091316 -0.262156E-07  0.107E-03    3.47      18.7  T
   5    -38.0091316 -0.804359E-08  0.488E-04    3.47      41.0  T
   6    -38.0091316 -0.316435E-08  0.942E-05    3.47     212.3  T
     SCC iter.                  ...        0 min,  0.008 sec
     gradient                   ...        0 min,  0.002 sec
 * total energy  :   -37.4415321 Eh     change       -0.2021084E-04 Eh
   gradient norm :     0.0010348 Eh/α   predicted    -0.8481183E-05 ( -58.04%)
   displ. norm   :     0.1559596 α      lambda       -0.1255434E-04
   maximum displ.:     0.1191309 α      in ANC's #1, #3, #2, ...

........................................................................
.............................. CYCLE   13 ..............................
........................................................................
   1    -38.0092960 -0.380093E+02  0.329E-02    3.47       0.0  T
   2    -38.0092962 -0.161976E-06  0.194E-02    3.47       1.0  T
   3    -38.0092962 -0.128481E-07  0.167E-03    3.47      12.0  T
   4    -38.0092962 -0.328260E-07  0.851E-04    3.47      23.5  T
   5    -38.0092962 -0.508357E-08  0.369E-04    3.47      54.2  T
     SCC iter.                  ...        0 min,  0.007 sec
     gradient                   ...        0 min,  0.002 sec
 * total energy  :   -37.4415471 Eh     change       -0.1498683E-04 Eh
   gradient norm :     0.0007749 Eh/α   predicted    -0.6345369E-05 ( -57.66%)
   displ. norm   :     0.1234383 α      lambda       -0.8137775E-05
   maximum displ.:     0.0963315 α      in ANC's #1, #3, #2, ...

........................................................................
.............................. CYCLE   14 ..............................
........................................................................
   1    -38.0093890 -0.380094E+02  0.244E-02    3.47       0.0  T
   2    -38.0093890 -0.873879E-07  0.144E-02    3.47       1.4  T
   3    -38.0093890  0.324579E-07  0.175E-03    3.47      11.4  T
   4    -38.0093891 -0.611873E-07  0.642E-04    3.47      31.1  T
   5    -38.0093891 -0.231059E-08  0.235E-04    3.47      85.0  T
     SCC iter.                  ...        0 min,  0.007 sec
     gradient                   ...        0 min,  0.002 sec
 * total energy  :   -37.4415570 Eh     change       -0.9863359E-05 Eh
   gradient norm :     0.0005259 Eh/α   predicted    -0.4096992E-05 ( -58.46%)
   displ. norm   :     0.0813084 α      lambda       -0.5150220E-05
   maximum displ.:     0.0647552 α      in ANC's #1, #2, #3, ...

........................................................................
.............................. CYCLE   15 ..............................
........................................................................
   1    -38.0096730 -0.380097E+02  0.173E-02    3.47       0.0  T
   2    -38.0096730 -0.311799E-07  0.102E-02    3.47       2.0  T
   3    -38.0096730  0.225277E-07  0.130E-03    3.47      15.4  T
   4    -38.0096730 -0.340446E-07  0.377E-04    3.47      53.0  T
   5    -38.0096730 -0.628582E-09  0.150E-04    3.47     133.7  T
     SCC iter.                  ...        0 min,  0.007 sec
     gradient                   ...        0 min,  0.002 sec
 * total energy  :   -37.4415629 Eh     change       -0.5956307E-05 Eh
   gradient norm :     0.0006752 Eh/α   predicted    -0.2588343E-05 ( -56.54%)
   displ. norm   :     0.0700470 α      lambda       -0.3780285E-05
   maximum displ.:     0.0559152 α      in ANC's #1, #2, #3, ...

........................................................................
.............................. CYCLE   16 ..............................
........................................................................
   1    -38.0094762 -0.380095E+02  0.146E-02    3.47       0.0  T
   2    -38.0094762 -0.275773E-07  0.861E-03    3.47       2.3  T
   3    -38.0094761  0.357903E-07  0.154E-03    3.47      13.0  T
   4    -38.0094762 -0.469235E-07  0.363E-04    3.47      55.1  T
   5    -38.0094762 -0.552902E-09  0.158E-04    3.47     126.6  T
     SCC iter.                  ...        0 min,  0.008 sec
     gradient                   ...        0 min,  0.002 sec
 * total energy  :   -37.4415671 Eh     change       -0.4196844E-05 Eh
   gradient norm :     0.0004648 Eh/α   predicted    -0.1895577E-05 ( -54.83%)
   displ. norm   :     0.0441989 α      lambda       -0.2410717E-05
   maximum displ.:     0.0340782 α      in ANC's #1, #2, #8, ...

   *** GEOMETRY OPTIMIZATION CONVERGED AFTER 16 ITERATIONS ***

------------------------------------------------------------------------
 total energy gain   :        -0.0039804 Eh       -2.4977 kcal/mol
 total RMSD          :         0.2594519 a0        0.1373 Å
 total power (kW/mol):        -0.6531508 (step)  -49.9570 (real)
------------------------------------------------------------------------

 ANCopt (total)                0 d,  0 h,  0 min,  0.209 sec
 optimizer setup                ...        0 min,  0.000 sec (  0.236%)
 model hessian                  ...        0 min,  0.008 sec (  3.849%)
 ANC generation                 ...        0 min,  0.001 sec (  0.520%)
 coordinate transformation      ...        0 min,  0.000 sec (  0.153%)
 single point calculation       ...        0 min,  0.184 sec ( 88.071%)
 optimization log               ...        0 min,  0.009 sec (  4.520%)
 hessian update                 ...        0 min,  0.001 sec (  0.355%)
 rational function              ...        0 min,  0.002 sec (  1.012%)

================
 final structure:
================
25
 xtb: 6.4.1 (afa7bdf)
C         1.48537742545851    1.27512515137874   -0.03158693279875
C         0.16869681352769    1.67021148325986    0.01160869779818
C        -0.80762796564299    0.68208930214415    0.01680432881200
C        -0.47390461698037   -0.69228124271162   -0.02336211322538
C         0.86922449237798   -1.07101667113193   -0.06371446944804
C         1.83356088511015   -0.08432176143027   -0.06695182562317
O         3.16994424651572   -0.37791763604269   -0.10484918745623
C        -1.70347709686421   -1.41866898046314   -0.00168846903362
C        -2.69931793136278   -0.48614183277856    0.04488307789706
N        -2.16993082508332    0.77501619661316    0.05766310941823
C        -1.86476822922914   -2.90028481402398   -0.06955742234236
C        -1.74928665894456   -3.40586514847725   -1.51282187672199
N        -2.03648088137563   -4.83059603172774   -1.56098058206502
H         2.28429969734342    1.99887193889496   -0.03726962550319
H        -0.09516378646319    2.71685498959369    0.04139031468475
H         1.14911974673173   -2.11588916133038   -0.08911725322382
H         3.28701559998537   -1.33483768071412   -0.11879516435268
H        -3.76168565062429   -0.63607563757227    0.07617190382162
H        -2.69642844510252    1.63026909415453    0.09850787861704
H        -2.84294705135557   -3.18929829481418    0.31620944543198
H        -1.09961935045535   -3.38602217614314    0.54113299216722
H        -0.75262324074595   -3.14367876854845   -1.90716801206746
H        -2.49468861913193   -2.89719324766491   -2.13080596625127
H        -1.34978460920199   -5.34537644053925   -1.01830733191282
H        -1.99485394848676   -5.16988262992533   -2.51587551662237

 Bond Distances (Angstroems)
 ---------------------------
C1-C2=1.3754         C1-C6=1.4038         C1-H14=1.0780        C2-C1=1.3754         C2-C3=1.3891         C2-H15=1.0798
C3-C2=1.3891         C3-C4=1.4149         C3-N10=1.3661        C4-C3=1.4149         C4-C5=1.3961         C4-C8=1.4283
C5-C4=1.3961         C5-C6=1.3797         C5-H16=1.0820        C6-C1=1.4038         C6-C5=1.3797         C6-O7=1.3688
O7-C6=1.3688         O7-H17=0.9642        C8-C4=1.4283         C8-C9=1.3651         C8-C11=1.4919        C9-C8=1.3651
C9-N10=1.3678        C9-H18=1.0734        N10-C3=1.3661        N10-C9=1.3678        N10-H19=1.0051       C11-C8=1.4919
C11-C12=1.5336       C11-H20=1.0905       C11-H21=1.0929       C12-C11=1.5336       C12-N13=1.4542       C12-H22=1.1034
C12-H23=1.0937       N13-C12=1.4542       N13-H24=1.0154       N13-H25=1.0142       H14-C1=1.0780        H15-C2=1.0798
H16-C5=1.0820        H17-O7=0.9642        H18-C9=1.0734        H19-N10=1.0051       H20-C11=1.0905       H21-C11=1.0929
H22-C12=1.1034       H23-C12=1.0937       H24-N13=1.0154       H25-N13=1.0142
 C  H  Rav=1.0867 sigma=0.0094  Rmin=1.0734  Rmax=1.1034     8
 C  C  Rav=1.4178 sigma=0.0515  Rmin=1.3651  Rmax=1.5336    10
 N  H  Rav=1.0116 sigma=0.0046  Rmin=1.0051  Rmax=1.0154     3
 N  C  Rav=1.3960 sigma=0.0411  Rmin=1.3661  Rmax=1.4542     3
 O  H  Rav=0.9642 sigma=0.0000  Rmin=0.9642  Rmax=0.9642     1
 O  C  Rav=1.3688 sigma=0.0000  Rmin=1.3688  Rmax=1.3688     1

 selected bond angles (degree)
 --------------------
C6-C1-C2=121.09                H14-C1-C2=121.12               H14-C1-C6=117.79               C3-C2-C1=117.95
H15-C2-C1=120.88               H15-C2-C3=121.17               C4-C3-C2=121.67                N10-C3-C2=130.74
N10-C3-C4=107.59               C5-C4-C3=119.42                C8-C4-C3=106.89                C8-C4-C5=133.69
C6-C5-C4=118.59                H16-C5-C4=120.77               H16-C5-C6=120.65               C5-C6-C1=121.28
O7-C6-C1=116.78                O7-C6-C5=121.94                H17-O7-C6=109.38               C9-C8-C4=106.33
C11-C8-C4=126.69               C11-C8-C9=126.95               N10-C9-C8=110.35               H18-C9-C8=128.87
H18-C9-N10=120.77              C9-N10-C3=108.84               H19-N10-C3=125.55              H19-N10-C9=125.60

 selected dihedral angles (degree)
 ---------------------------------
C3-C2-C1-C6=359.89            C3-C2-C1-H14=180.02           H15-C2-C1-C6=179.84           H15-C2-C1-H14=359.97
C4-C3-C2-C1=359.88            C4-C3-C2-H15=179.93           N10-C3-C2-C1=179.85           N10-C3-C2-H15=359.90
C5-C4-C3-C2=  0.27            C5-C4-C3-N10=180.30           C8-C4-C3-C2=179.85            C8-C4-C3-N10=359.88
C6-C5-C4-C3=359.82            C6-C5-C4-C8=180.37            H16-C5-C4-C3=179.65           H16-C5-C4-C8=  0.20
C5-C6-C1-C2=  0.20            C5-C6-C1-H14=180.07           O7-C6-C1-C2=180.18            O7-C6-C1-H14=  0.05
C1-C6-C5-C4=359.96            C1-C6-C5-H16=180.13           O7-C6-C5-C4=179.97            O7-C6-C5-H16=  0.14
H17-O7-C6-C1=179.50           H17-O7-C6-C5=359.49           C9-C8-C4-C3=  0.18            C9-C8-C4-C5=179.68
C11-C8-C4-C3=178.06           C11-C8-C4-C5=357.56           N10-C9-C8-C4=359.82           N10-C9-C8-C11=181.95
H18-C9-C8-C4=180.24           H18-C9-C8-C11=  2.36          C9-N10-C3-C2=180.04           C9-N10-C3-C4=  0.00
H19-N10-C3-C2=359.56          H19-N10-C3-C4=179.53          C3-N10-C9-C8=  0.11           C3-N10-C9-H18=179.73
H19-N10-C9-C8=180.59          H19-N10-C9-H18=  0.22
           -------------------------------------------------
          |                Final Singlepoint                |
           -------------------------------------------------

          ...................................................
          :                      SETUP                      :
          :.................................................:
          :  # basis functions                  64          :
          :  # atomic orbitals                  64          :
          :  # shells                           38          :
          :  # electrons                        68          :
          :  max. iterations                   250          :
          :  Hamiltonian                  GFN2-xTB          :
          :  restarted?                      false          :
          :  GBSA solvation                  false          :
          :  PC potential                    false          :
          :  electronic temp.          300.0000000     K    :
          :  accuracy                    1.0000000          :
          :  -> integral cutoff          0.2500000E+02      :
          :  -> integral neglect         0.1000000E-07      :
          :  -> SCF convergence          0.1000000E-05 Eh   :
          :  -> wf. convergence          0.1000000E-03 e    :
          :  Broyden damping             0.4000000          :
          ...................................................

 iter      E             dE          RMSdq      gap      omega  full diag
   1    -38.0094762 -0.380095E+02  0.643E-05    3.47       0.0  T
   2    -38.0094762 -0.316334E-10  0.463E-05    3.47     432.0  T
   3    -38.0094762 -0.445226E-10  0.205E-05    3.47     976.8  T

   *** convergence criteria satisfied after 3 iterations ***

         #    Occupation            Energy/Eh            Energy/eV
      -------------------------------------------------------------
         1        2.0000           -0.6976377             -18.9837
       ...           ...                  ...                  ...
        28        2.0000           -0.4342836             -11.8175
        29        2.0000           -0.4303464             -11.7103
        30        2.0000           -0.4120785             -11.2132
        31        2.0000           -0.4094005             -11.1404
        32        2.0000           -0.3671786              -9.9914
        33        2.0000           -0.3635335              -9.8922
        34        2.0000           -0.3547516              -9.6533 (HOMO)
        35                         -0.2272398              -6.1835 (LUMO)
        36                         -0.1861643              -5.0658
        37                         -0.1530189              -4.1639
        38                         -0.0656976              -1.7877
        39                          0.0215174               0.5855
       ...                                ...                  ...
        64                          0.7199623              19.5912
      -------------------------------------------------------------
                  HL-Gap            0.1275118 Eh            3.4698 eV
             Fermi-level           -0.2909957 Eh           -7.9184 eV

 SCC (total)                   0 d,  0 h,  0 min,  0.009 sec
 SCC setup                      ...        0 min,  0.000 sec (  5.336%)
 Dispersion                     ...        0 min,  0.000 sec (  1.498%)
 classical contributions        ...        0 min,  0.000 sec (  0.206%)
 integral evaluation            ...        0 min,  0.001 sec ( 10.780%)
 iterations                     ...        0 min,  0.005 sec ( 49.838%)
 molecular gradient             ...        0 min,  0.002 sec ( 25.906%)
 printout                       ...        0 min,  0.001 sec (  6.048%)

         :::::::::::::::::::::::::::::::::::::::::::::::::::::
         ::                     SUMMARY                     ::
         :::::::::::::::::::::::::::::::::::::::::::::::::::::
         :: total energy             -37.441567112416 Eh    ::
         :: gradient norm              0.000464477755 Eh/a0 ::
         :: HOMO-LUMO gap              3.469772560707 eV    ::
         ::.................................................::
         :: HOMO orbital eigv.        -9.653281248884 eV    ::
         :: LUMO orbital eigv.        -6.183508688177 eV    ::
         ::.................................................::
         :: SCC energy               -38.009476193763 Eh    ::
         :: -> isotropic ES            0.036554767368 Eh    ::
         :: -> anisotropic ES          0.008579630516 Eh    ::
         :: -> anisotropic XC          0.017468750069 Eh    ::
         :: -> dispersion             -0.022644258974 Eh    ::
         :: repulsion energy           0.567819082820 Eh    ::
         :: add. restraining           0.000000000000 Eh    ::
         :: total charge               0.000000000000 e     ::
         ::.................................................::
         :: atomisation energy         7.663833655956 Eh    ::
         :::::::::::::::::::::::::::::::::::::::::::::::::::::

           -------------------------------------------------
          |                Numerical Hessian                |
           -------------------------------------------------
step length          :   0.00500
SCC accuracy         :   0.30000
Hessian scale factor :   1.00000
frozen atoms in %    :   0.00000    0
RMS gradient         :   0.00046
estimated CPU  time      0.23 min
estimated wall time      0.02 min

writing file <hessian>.

 projected vibrational frequencies (cm⁻¹)
eigval :       -0.00    -0.00    -0.00     0.00     0.00     0.00
eigval :       39.67    75.07    79.77   141.97   188.84   209.09
eigval :      268.66   317.98   322.92   361.86   390.07   405.10
eigval :      422.40   433.79   464.61   486.20   567.90   584.52
eigval :      625.72   691.10   716.88   753.86   789.24   805.09
eigval :      809.64   841.99   850.35   896.12   917.20   953.01
eigval :      969.61  1034.66  1068.13  1085.38  1113.67  1127.67
eigval :     1139.73  1146.56  1189.70  1219.00  1224.71  1246.32
eigval :     1274.39  1295.24  1316.57  1320.70  1364.71  1374.59
eigval :     1405.66  1434.43  1479.40  1495.04  1504.35  1565.23
eigval :     1580.61  1586.30  1632.32  2821.55  2956.63  2968.29
eigval :     2999.71  3057.11  3079.98  3114.03  3150.14  3378.70
eigval :     3413.32  3490.05  3531.13
           -------------------------------------------------
          |                Property Printout                |
           -------------------------------------------------

    * Orbital Energies and Occupations

         #    Occupation            Energy/Eh            Energy/eV
      -------------------------------------------------------------
         1        2.0000           -0.6976377             -18.9837
       ...           ...                  ...                  ...
        22        2.0000           -0.4818629             -13.1122
        23        2.0000           -0.4734468             -12.8831
        24        2.0000           -0.4579254             -12.4608
        25        2.0000           -0.4525021             -12.3132
        26        2.0000           -0.4485435             -12.2055
        27        2.0000           -0.4430736             -12.0566
        28        2.0000           -0.4342836             -11.8175
        29        2.0000           -0.4303464             -11.7103
        30        2.0000           -0.4120784             -11.2132
        31        2.0000           -0.4094005             -11.1404
        32        2.0000           -0.3671786              -9.9914
        33        2.0000           -0.3635335              -9.8923
        34        2.0000           -0.3547515              -9.6533 (HOMO)
        35                         -0.2272397              -6.1835 (LUMO)
        36                         -0.1861643              -5.0658
        37                         -0.1530189              -4.1639
        38                         -0.0656975              -1.7877
        39                          0.0215174               0.5855
        40                          0.0531471               1.4462
        41                          0.0755542               2.0559
        42                          0.1186429               3.2284
        43                          0.1242111               3.3800
        44                          0.1305652               3.5529
        45                          0.1415381               3.8514
       ...                                ...                  ...
        64                          0.7199624              19.5912
      -------------------------------------------------------------
                  HL-Gap            0.1275118 Eh            3.4698 eV
             Fermi-level           -0.2909956 Eh           -7.9184 eV

     #   Z          covCN         q      C6AA      α(0)
     1   6 C        2.924    -0.058    29.441     8.898
     2   6 C        2.909    -0.053    29.321     8.879
     3   6 C        3.087     0.034    27.139     8.540
     4   6 C        3.120    -0.019    28.299     8.713
     5   6 C        2.910    -0.079    29.963     8.976
     6   6 C        2.846     0.133    25.089     8.209
     7   8 O        1.659    -0.403    20.906     6.172
     8   6 C        3.055    -0.031    28.729     8.790
     9   6 C        3.037    -0.009    28.210     8.712
    10   7 N        2.777    -0.104    23.273     7.165
    11   6 C        3.805    -0.063    21.713     6.634
    12   6 C        3.732     0.028    20.191     6.414
    13   7 N        2.630    -0.342    28.812     7.972
    14   1 H        0.926     0.048     2.351     2.398
    15   1 H        0.926     0.029     2.602     2.522
    16   1 H        0.925     0.022     2.708     2.573
    17   1 H        0.805     0.293     0.742     1.353
    18   1 H        0.926     0.031     2.567     2.506
    19   1 H        0.860     0.156     1.358     1.826
    20   1 H        0.924     0.046     2.366     2.405
    21   1 H        0.924     0.037     2.483     2.464
    22   1 H        0.923     0.004     2.998     2.708
    23   1 H        0.924     0.031     2.573     2.508
    24   1 H        0.860     0.135     1.509     1.925
    25   1 H        0.860     0.134     1.512     1.926

 Mol. C6AA /au·bohr⁶  :       6993.990957
 Mol. C8AA /au·bohr⁸  :     164778.508369
 Mol. α(0) /au        :        131.186589


Wiberg/Mayer (AO) data.
largest (>0.10) Wiberg bond orders for each atom

 ---------------------------------------------------------------------------
     #   Z sym  total        # sym  WBO       # sym  WBO       # sym  WBO
 ---------------------------------------------------------------------------
     1   6 C    3.987 --     2 C    1.504     6 C    1.308    14 H    0.969
     2   6 C    3.989 --     1 C    1.504     3 C    1.335    15 H    0.968
                             5 C    0.108
     3   6 C    3.958 --     2 C    1.335     4 C    1.249    10 N    1.170
     4   6 C    3.984 --     5 C    1.323     3 C    1.249     8 C    1.209
     5   6 C    3.984 --     6 C    1.444     4 C    1.323    16 H    0.964
                             2 C    0.108
     6   6 C    3.935 --     5 C    1.444     1 C    1.308     7 O    1.053
     7   8 O    2.095 --     6 C    1.053    17 H    0.894
     8   6 C    3.977 --     9 C    1.577     4 C    1.209    11 C    1.017
     9   6 C    3.948 --     8 C    1.577    10 N    1.197    18 H    0.970
    10   7 N    3.537 --     9 C    1.197     3 C    1.170    19 H    0.948
    11   6 C    3.997 --     8 C    1.017    12 C    0.987    20 H    0.974
                            21 H    0.970
    12   6 C    3.986 --    13 N    1.023    11 C    0.987    23 H    0.977
                            22 H    0.970
    13   7 N    3.000 --    12 C    1.023    24 H    0.969    25 H    0.968
    14   1 H    0.997 --     1 C    0.969
    15   1 H    0.999 --     2 C    0.968
    16   1 H    0.999 --     5 C    0.964
    17   1 H    0.914 --     7 O    0.894
    18   1 H    0.998 --     9 C    0.970
    19   1 H    0.975 --    10 N    0.948
    20   1 H    0.997 --    11 C    0.974
    21   1 H    0.999 --    11 C    0.970
    22   1 H    1.000 --    12 C    0.970
    23   1 H    0.999 --    12 C    0.977
    24   1 H    0.982 --    13 N    0.969
    25   1 H    0.981 --    13 N    0.968
 ---------------------------------------------------------------------------

Topologies differ in total number of bonds
Writing topology from bond orders to xtbtopo.mol

molecular dipole:
                 x           y           z       tot (Debye)
 q only:       -0.556      -0.019      -0.004
   full:       -0.409      -0.052      -0.165       1.129
molecular quadrupole (traceless):
                xx          xy          yy          xz          yz          zz
 q only:       -1.579      -8.903       3.453      -0.482       0.963      -1.874
  q+dip:       -2.728     -17.167       6.724      -0.969       3.005      -3.995
   full:       -4.392     -17.170       5.865      -0.798       3.136      -1.472

           -------------------------------------------------
          |                Geometry Summary                 |
           -------------------------------------------------

      molecular mass/u    :      176.2154593
   center of mass at/Å    :       -0.4426556      -0.9144052      -0.2832091
  moments of inertia/u·Å² :        0.4096684E+03   0.9318284E+03   0.1290087E+04
rotational constants/cm⁻¹ :        0.4114946E-01   0.1809092E-01   0.1306705E-01

 * 26 selected distances

     #   Z          #   Z                                           value/Å
     1   6 C        2   6 C                                       1.3753570
     2   6 C        3   6 C                                       1.3891085
     3   6 C        4   6 C                                       1.4148777
     4   6 C        5   6 C                                       1.3960891
     1   6 C        6   6 C                                       1.4037729
     5   6 C        6   6 C                                       1.3796818
     6   6 C        7   8 O                                       1.3687787
     4   6 C        8   6 C                                       1.4282708
     8   6 C        9   6 C                                       1.3650915
     3   6 C       10   7 N                                       1.3660798
     9   6 C       10   7 N                                       1.3678208
     8   6 C       11   6 C                                       1.4919137
    11   6 C       12   6 C                                       1.5336100 (max)
    12   6 C       13   7 N                                       1.4541863
     1   6 C       14   1 H                                       1.0780160
     2   6 C       15   1 H                                       1.0798018
     5   6 C       16   1 H                                       1.0820098
     7   8 O       17   1 H                                       0.9641557 (min)
     9   6 C       18   1 H                                       1.0733519
    10   7 N       19   1 H                                       1.0051495
    11   6 C       20   1 H                                       1.0904947
    11   6 C       21   1 H                                       1.0928570
    12   6 C       22   1 H                                       1.1034439
    12   6 C       23   1 H                                       1.0937438
    13   7 N       24   1 H                                       1.0154038
    13   7 N       25   1 H                                       1.0142349

 * 6 distinct bonds (by element types)

   Z      Z             #   av. dist./Å        max./Å        min./Å
   1 H    6 C           8     1.0867149     1.1034439     1.0733519
   6 C    6 C          10     1.4177773     1.5336100     1.3650915
   1 H    7 N           3     1.0115961     1.0154038     1.0051495
   6 C    7 N           3     1.3960289     1.4541863     1.3660798
   1 H    8 O           1     0.9641557     0.9641557     0.9641557
   6 C    8 O           1     1.3687787     1.3687787     1.3687787

           -------------------------------------------------
          |               Frequency Printout                |
           -------------------------------------------------
 projected vibrational frequencies (cm⁻¹)
eigval :       -0.00    -0.00    -0.00     0.00     0.00     0.00
eigval :       39.67    75.07    79.77   141.97   188.84   209.09
eigval :      268.66   317.98   322.92   361.86   390.07   405.10
eigval :      422.40   433.79   464.61   486.20   567.90   584.52
eigval :      625.72   691.10   716.88   753.86   789.24   805.09
eigval :      809.64   841.99   850.35   896.12   917.20   953.01
eigval :      969.61  1034.66  1068.13  1085.38  1113.67  1127.67
eigval :     1139.73  1146.56  1189.70  1219.00  1224.71  1246.32
eigval :     1274.39  1295.24  1316.57  1320.70  1364.71  1374.59
eigval :     1405.66  1434.43  1479.40  1495.04  1504.35  1565.23
eigval :     1580.61  1586.30  1632.32  2821.55  2956.63  2968.29
eigval :     2999.71  3057.11  3079.98  3114.03  3150.14  3378.70
eigval :     3413.32  3490.05  3531.13
 reduced masses (amu)
   1: 12.15   2: 12.14   3: 11.57   4: 12.01   5: 12.38   6: 11.24   7: 10.74   8:  7.30
   9: 10.46  10: 12.13  11: 10.02  12:  9.96  13:  2.07  14: 10.36  15: 11.38  16: 11.04
  17:  6.50  18: 11.81  19:  5.18  20: 11.87  21:  5.03  22: 10.85  23:  8.05  24: 10.80
  25: 11.16  26: 11.54  27: 11.47  28: 11.35  29:  3.32  30:  4.52  31:  3.08  32: 10.70
  33:  3.29  34:  3.17  35:  3.63  36:  9.81  37:  6.73  38:  6.93  39:  7.50  40:  3.21
  41:  9.33  42:  5.14  43:  3.47  44:  2.72  45:  4.95  46:  5.65  47:  4.77  48:  6.67
  49:  2.49  50:  4.68  51: 10.27  52:  9.08  53:  4.71  54: 11.53  55: 10.67  56: 10.30
  57:  2.01  58:  1.87  59: 11.28  60:  2.09  61: 11.67  62: 11.62  63: 11.70  64:  1.74
  65:  1.68  66:  1.78  67:  1.68  68:  1.82  69:  1.82  70:  1.85  71:  1.87  72:  1.53
  73:  2.06  74:  1.87  75:  1.86
 IR intensities (km·mol⁻¹)
   1:  0.04   2:  0.01   3:  0.05   4:  0.07   5:  0.01   6:  0.05   7:  1.30   8:  4.54
   9:  0.18  10:  1.10  11:  1.09  12:  2.61  13: 43.66  14:  2.26  15:  6.33  16: 11.37
  17: 71.26  18:  9.87  19: 68.04  20:  3.54  21: 99.53  22:  2.28  23:  6.21  24:  5.20
  25:  3.64  26:  3.49  27: 13.69  28:  2.10  29:  4.76  30: 40.69  31:  9.95  32:  0.78
  33:  0.02  34:  0.17  35:117.79  36: 27.73  37:  9.32  38:  0.81  39: 30.25  40: 21.55
  41: 22.36  42: 10.64  43: 60.83  44:130.48  45: 34.71  46:126.65  47:  9.76  48: 52.65
  49:  4.64  50:  2.61  51: 16.34  52: 29.47  53: 30.86  54:  7.94  55:  5.46  56: 93.84
  57:  1.75  58:  2.01  59:146.22  60: 25.34  61:  0.31  62: 17.82  63: 34.17  64: 91.95
  65:  0.95  66: 66.24  67: 39.01  68: 40.82  69: 31.93  70: 25.67  71: 21.78  72: 17.69
  73: 15.81  74: 12.70  75:  9.04
 Raman intensities (amu)
   1:  0.00   2:  0.00   3:  0.00   4:  0.00   5:  0.00   6:  0.00   7:  0.00   8:  0.00
   9:  0.00  10:  0.00  11:  0.00  12:  0.00  13:  0.00  14:  0.00  15:  0.00  16:  0.00
  17:  0.00  18:  0.00  19:  0.00  20:  0.00  21:  0.00  22:  0.00  23:  0.00  24:  0.00
  25:  0.00  26:  0.00  27:  0.00  28:  0.00  29:  0.00  30:  0.00  31:  0.00  32:  0.00
  33:  0.00  34:  0.00  35:  0.00  36:  0.00  37:  0.00  38:  0.00  39:  0.00  40:  0.00
  41:  0.00  42:  0.00  43:  0.00  44:  0.00  45:  0.00  46:  0.00  47:  0.00  48:  0.00
  49:  0.00  50:  0.00  51:  0.00  52:  0.00  53:  0.00  54:  0.00  55:  0.00  56:  0.00
  57:  0.00  58:  0.00  59:  0.00  60:  0.00  61:  0.00  62:  0.00  63:  0.00  64:  0.00
  65:  0.00  66:  0.00  67:  0.00  68:  0.00  69:  0.00  70:  0.00  71:  0.00  72:  0.00
  73:  0.00  74:  0.00  75:  0.00
 output can be read by thermo (or use thermo option).
 writing <g98.out> molden fake output.
 recommended (thermochemical) frequency scaling factor: 1.0
           -------------------------------------------------
          |             Thermodynamic Functions             |
           -------------------------------------------------

Molecule has no symmetry elements
It seems to be the C1 point group
c1  symmetry found (for desy threshold:  0.10E+00) used in thermo

          ...................................................
          :                      SETUP                      :
          :.................................................:
          :  # frequencies                          69      :
          :  # imaginary freq.                       0      :
          :  linear?                             false      :
          :  only rotor calc.                    false      :
          :  symmetry                               c1      :
          :  rotational number                       1      :
          :  scaling factor                  1.0000000      :
          :  rotor cutoff                   50.0000000 cm⁻¹ :
          :  imag. cutoff                  -20.0000000 cm⁻¹ :
          :.................................................:

    mode    ω/cm⁻¹     T·S(HO)/kcal·mol⁻¹    T·S(FR)/kcal·mol⁻¹   T·S(vib)
   ------------------------------------------------------------------------
       1     39.67    -1.57283 ( 28.39%)    -1.12494 ( 71.61%)    -1.25208
       2     75.07    -1.19735 ( 83.55%)    -0.93610 ( 16.45%)    -1.15438
       3     79.77    -1.16176 ( 86.63%)    -0.91810 ( 13.37%)    -1.12918
       4    141.97    -0.82800 ( 98.48%)    -0.74735 (  1.52%)    -0.82678
       5    188.84    -0.66761 ( 99.51%)    -0.66285 (  0.49%)    -0.66759
       6    209.09    -0.61168 ( 99.67%)    -0.63267 (  0.33%)    -0.61175
       7    268.66    -0.47848 ( 99.88%)    -0.55843 (  0.12%)    -0.47858
   ------------------------------------------------------------------------

   temp. (K)  partition function   enthalpy   heat capacity  entropy
                                   cal/mol     cal/K/mol   cal/K/mol   J/K/mol
 298.15  VIB  0.304E+04             5760.063     41.076     33.923
         ROT  0.170E+07              888.752      2.981     31.485
         INT  0.515E+10             6648.815     44.057     65.407
         TR   0.226E+28             1481.254      4.968     41.388
         TOT                        8130.0688    49.0254   106.7954   446.8320

       T/K    H(0)-H(T)+PV         H(T)/Eh          T*S/Eh         G(T)/Eh
   ------------------------------------------------------------------------
    298.15    0.129561E-01    0.214724E+00    0.507419E-01    0.163982E+00
   ------------------------------------------------------------------------

         :::::::::::::::::::::::::::::::::::::::::::::::::::::
         ::                  THERMODYNAMIC                  ::
         :::::::::::::::::::::::::::::::::::::::::::::::::::::
         :: total free energy         -37.277585026853 Eh   ::
         ::.................................................::
         :: total energy              -37.441567112416 Eh   ::
         :: zero point energy           0.201767942942 Eh   ::
         :: G(RRHO) w/o ZPVE           -0.037785857379 Eh   ::
         :: G(RRHO) contrib.            0.163982085563 Eh   ::
         :::::::::::::::::::::::::::::::::::::::::::::::::::::

optimized geometry written to: xtbopt.xyz


           -------------------------------------------------
          | TOTAL ENERGY              -37.441567112416 Eh   |
          | TOTAL ENTHALPY            -37.226843080132 Eh   |
          | TOTAL FREE ENERGY         -37.277585026853 Eh   |
          | GRADIENT NORM               0.000464528823 Eh/α |
          | HOMO-LUMO GAP               3.469772220532 eV   |
           -------------------------------------------------

------------------------------------------------------------------------
 unit  open   action     filename
  129 false : read       mol.xyz
  130 false : read       mol.xyz
  131 false : read       mol.xyz
  132 false : read       xtbrestart
  133 false : deleted    .xtboptok
  134 false : replaced   xtbopt.log
  135 false : created    .xtboptok
  136 false : replaced   hessian
  137 false : replaced   charges
  138 false : replaced   wbo
  139 false : replaced   xtbtopo.mol
  140 false : replaced   vibspectrum
  141  true : replaced   g98.out
  142 false : replaced   xtbopt.xyz
  143 false : replaced   xtbrestart

------------------------------------------------------------------------
 * finished run on 2022/09/14 at 11:43:47.907
------------------------------------------------------------------------
 total:
 * wall-time:     0 d,  0 h,  0 min,  0.807 sec
 *  cpu-time:     0 d,  0 h,  0 min,  9.484 sec
 * ratio c/w:    11.746 speedup
 SCF:
 * wall-time:     0 d,  0 h,  0 min,  0.017 sec
 *  cpu-time:     0 d,  0 h,  0 min,  0.198 sec
 * ratio c/w:    11.712 speedup
 ANC optimizer:
 * wall-time:     0 d,  0 h,  0 min,  0.222 sec
 *  cpu-time:     0 d,  0 h,  0 min,  2.638 sec
 * ratio c/w:    11.891 speedup
 analytical hessian:
 * wall-time:     0 d,  0 h,  0 min,  0.503 sec
 *  cpu-time:     0 d,  0 h,  0 min,  5.951 sec
 * ratio c/w:    11.822 speedup
